 ----------------------------------------------------------------------
 #p HF/3-21G sp punch=MO iop(3/33=3) nosymm extralinks=l316 noraff scf=
 conventional
 ----------------------------------------------------------------------

 -----
 test1
 -----
 Symbolic Z-matrix:
 Charge =  0 Multiplicity = 1

                          Input orientation:
 ---------------------------------------------------------------------
 Center     Atomic      Atomic             Coordinates (Angstroms)
 Number     Number       Type             X           Y           Z
 ---------------------------------------------------------------------
      1          1           0        0.000000    0.000000    0.000000
      2          1           0        0.740000    0.000000    0.000000
 ---------------------------------------------------------------------

 SCF Done:  E(RHF) =  -1.12294025884     A.U. after    4 cycles

 Alpha  occ. eigenvalues --   -0.59264
 Alpha virt. eigenvalues --    0.26419   0.92028   1.52562

 Mulliken charges:
               1
     1  H    0.000000
     2  H    0.000000
 Sum of Mulliken charges =   0.00000

 Dipole moment (field-independent basis, Debye):
    X=              0.0000    Y=              0.0000    Z=              0.0000  Tot=              0.0000
 Quadrupole moment (field-independent basis, Debye-Ang):
   XX=             -1.5720   YY=             -2.0011   ZZ=             -2.0011
   XY=              0.0000   XZ=              0.0000   YZ=              0.0000

 Normal termination of Gaussian DV at Wed Sep 14 14:50:38 2022.
