 ------------------------
 #p ccsd/STO-3G sp nosymm
 ------------------------

 -----
 test1
 -----
 Symbolic Z-matrix:
 Charge =     0 Multiplicity =     1

                          Input orientation:
 ---------------------------------------------------------------------
 Center     Atomic      Atomic             Coordinates (Angstroms)
 Number     Number       Type             X           Y           Z
 ---------------------------------------------------------------------
      1          3           0        0.000000    0.000000    0.000000
      2          3           0        1.100000    0.000000    0.000000
 ---------------------------------------------------------------------

 SCF Done:  E(RHF) =  -14.4149626494     A.U. after    7 cycles
 E2 =    -0.2289682906D-01 EUMP2 =    -0.14437859478463D+02

 Alpha  occ. eigenvalues --       -2.65663      -2.45220      -0.19292
 Alpha virt. eigenvalues --        0.03497       0.03497       0.07255       0.30817       0.32756
 Alpha virt. eigenvalues --        0.32756       1.46039

 Mulliken charges:
               1
     1  Li   0.000000
     2  Li   0.000000
 Sum of Mulliken charges =   0.00000

 Dipole moment (field-independent basis, Debye):
    X=              0.0000    Y=              0.0000    Z=              0.0000  Tot=              0.0000
 Quadrupole moment (field-independent basis, Debye-Ang):
   XX=            -14.3889   YY=            -12.1688   ZZ=            -12.1688
   XY=              0.0000   XZ=              0.0000   YZ=              0.0000

 Normal termination of Gaussian DV at Thu Mar  7 09:36:01 2024.
