 -------------
 #p ccsd/3-21g
 -------------

 -----
 test1
 -----
 Symbolic Z-matrix:
 Charge =  0 Multiplicity = 1

                         Standard orientation:
 ---------------------------------------------------------------------
 Center     Atomic      Atomic             Coordinates (Angstroms)
 Number     Number       Type             X           Y           Z
 ---------------------------------------------------------------------
      1          1           0        0.000000    0.000000    0.370000
      2          1           0        0.000000    0.000000   -0.370000
 ---------------------------------------------------------------------

 SCF Done:  E(RHF) =  -1.12294025884     A.U. after    4 cycles
 E2 =    -0.1731305912D-01 EUMP2 =    -0.11402533179601D+01

 The electronic state is 1-SGG.
 Alpha  occ. eigenvalues --       -0.59264
 Alpha virt. eigenvalues --        0.26419       0.92028       1.52562

 Mulliken charges:
               1
     1  H    0.000000
     2  H    0.000000
 Sum of Mulliken charges =   0.00000

 Dipole moment (field-independent basis, Debye):
    X=              0.0000    Y=              0.0000    Z=              0.0000  Tot=              0.0000
 Quadrupole moment (field-independent basis, Debye-Ang):
   XX=             -2.0011   YY=             -2.0011   ZZ=             -1.5720
   XY=              0.0000   XZ=             -0.0000   YZ=              0.0000

 Normal termination of Gaussian DV at Tue Jul 12 10:22:27 2022.
